HEVA-LAMMPSDescription-Generated  time_step= 2

3 atoms
6 bonds
6 angles
3 impropers

1 atom types
4 bond types
1 angle types
1 improper types

  -3.000    3.000 xlo xhi
  -3.000    3.000 ylo yhi
  -3.000    3.000 zlo zhi

Atoms

1 1  -0.487201  -0.293288  -0.002107
2 1   0.504101  -0.290255   0.006539
3 1  -0.006186   0.572990  -0.002995

Bonds

1 3 1 2
2 2 2 1
3 1 2 3
4 4 3 2
5 2 3 1
6 3 1 3

Angles

1 1 1 3 5
2 1 2 0 0
3 1 3 5 1
4 1 4 0 0
5 1 5 1 3
6 1 6 0 0

Impropers

1 0 4 2 0
2 0 6 4 0
3 0 2 6 0
